8
Lattice="12.0 0.0 0.0 0.0 12.0 0.0 0.0 0.0 12.0" Properties=species:S:1:pos:R:3 i=76 E=-14.9559722838 pbc="F F F"
C        6.76404356       6.00000000       5.99974015
C        5.23595644       6.00000000       6.00025985
H        4.83326822       6.00000000       7.02329237
H        4.83304454       5.11420189       5.48878081
H        4.83304454       6.88579811       5.48878081
H        7.16673178       6.00000000       4.97670763
H        7.16695546       6.88579811       6.51121919
H        7.16695546       5.11420189       6.51121919