7
Lattice="10.0 0.0 0.0 0.0 10.0 0.0 0.0 0.0 20.0" Properties=species:S:1:pos:R:3:masses:R:1 E="-1616.0734116474 eV" pbc="F F F"
O        0.04484742      -0.04629644       0.04734128      15.99900000
H        0.77894341       0.79949670       0.65739652       1.00800000
H        0.77891605      -0.89219502       0.65740922       1.00800000
O        0.97517249      -0.04629609      -6.30602968      15.99900000
H        0.04452567      -0.78882254      -6.30972104       1.00800000
H        0.04452852       0.69664692      -6.31142366       1.00800000
H        0.04907959      -0.04629515      -1.29200063       1.00800000
