LAMMPS data file. CGCMM style. atom_style full generated by VMD/TopoTools v1.7 on Mon Sep 07 11:41:37 +0800 2020
 15 atoms
 1 bonds
 0 angles
 0 dihedrals
 0 impropers
 2 atom types
 1 bond types
 0 angle types
 0 dihedral types
 0 improper types
 -0.810158 14.189842  xlo xhi
 0.650733 15.650733  ylo yhi
 2.339252 17.339252  zlo zhi

# Pair Coeffs
#
# 1  Au
# 2  O

# Bond Coeffs
#
# 1  

 Masses

1          197.000000
2          16.000000

 Atoms # full

1 1 1 0.000000 7.549575 6.545190 7.502190 # Au 
2 1 1 0.000000 8.762655 7.496625 9.809581 # Au 
3 1 1 0.000000 9.095144 4.802835 9.229440 # Au 
4 1 1 0.000000 6.425160 5.502045 9.910200 # Au 
5 1 1 0.000000 8.681009 5.416290 11.829465 # Au 
6 1 1 0.000000 8.507174 10.034415 10.637580 # Au 
7 1 1 0.000000 6.974655 7.420800 12.331725 # Au 
8 1 1 0.000000 4.854465 6.788355 8.122920 # Au 
9 1 1 0.000000 4.539390 9.290490 7.028415 # Au 
10 1 1 0.000000 6.843480 9.145935 8.630011 # Au 
11 1 1 0.000000 4.748460 7.600170 10.747470 # Au 
12 1 1 0.000000 5.466525 9.971625 12.046875 # Au 
13 1 1 0.000000 4.284540 9.997755 9.624001 # Au 
14 1 2 0.000000 8.151675 11.658630 12.044880 # O 
15 1 2 0.000000 7.161405 11.306069 12.810090 # O 

 Bonds

1 1 14 15

