
15 atoms
2 atom types
   0.0000000000   15.0000000000 xlo xhi
   0.0000000000   15.0000000000 ylo yhi
   0.0000000000   15.0000000000 zlo zhi
   0.0000000000    0.0000000000    0.0000000000 xy xz yz

Atoms # atomic

     1      1    6.7881300000    4.5702450000    6.7235100000
     2      1    5.6264250000    5.5880700000    9.2229150000
     3      1    4.1685750000    5.6053800000    7.0486200000
     4      1    6.5672250000    9.9135300000    7.9077750000
     5      1    4.4098350000    8.2484250000    8.4293250000
     6      1    7.3622700000    5.6928450000   11.4424350000
     7      1    7.0116600000    8.1371550000    9.9878700000
     8      1    6.7978200000    7.2600600000    6.7202250000
     9      1    9.5025300000    4.4782350000    6.7501200000
    10      1    8.3675400000    5.5242150000    8.8888650000
    11      1    8.9698800000    8.4150450000    7.7949450000
    12      1    9.8773950000    7.6905750000   10.3991550000
    13      1   11.1046200000    6.3903150000    8.1925350000
    14      2    9.0983550000    6.4062450000   12.9471450000
    15      2   10.0219050000    7.2124050000   12.5139450000
